# vtk DataFile Version 3.0
Para0
ASCII
DATASET RECTILINEAR_GRID
DIMENSIONS 9 9 1
X_COORDINATES 9 int
0 1 2 3 4 5 6 7 8 
Y_COORDINATES 9 int
0 1 2 3 4 5 6 7 8 
Z_COORDINATES 1 int
0

CELL_DATA 64
SCALARS area float 1
LOOKUP_TABLE default
1.000000
1.000000
1.000000
1.000000
1.000000
1.000000
1.000000
1.000000
1.000000
1.000000
1.000000
1.000000
1.000000
1.000000
1.000000
1.000000
1.000000
1.000000
1.000000
1.000000
1.000000
1.000000
1.000000
1.000000
1.000000
1.000000
1.000000
0.933205
0.933205
1.000000
1.000000
1.000000
1.000000
0.710927
0.260741
0.016541
0.016541
0.260741
0.710927
1.000000
0.500000
0.000000
0.000000
0.000000
0.000000
0.000000
0.000000
0.500000
0.000000
0.000000
0.000000
0.000000
0.000000
0.000000
0.000000
0.000000
0.000000
0.000000
0.000000
0.000000
0.000000
0.000000
0.000000
0.000000
