# vtk DataFile Version 3.0
Para0
ASCII
DATASET RECTILINEAR_GRID
DIMENSIONS 9 9 1
X_COORDINATES 9 int
0 1 2 3 4 5 6 7 8 
Y_COORDINATES 9 int
0 1 2 3 4 5 6 7 8 
Z_COORDINATES 1 int
0

POINT_DATA 81
SCALARS distance float 1
LOOKUP_TABLE default
4.876760
4.517639
4.250606
4.084538
4.000000
4.084538
4.250606
4.517639
4.876760
3.974160
3.577282
3.276767
3.088282
3.000000
3.088282
3.276767
3.577282
3.974160
3.094848
2.652716
2.312002
2.092356
2.000000
2.092356
2.312002
2.652716
3.094848
2.247912
1.747589
1.359948
1.096770
1.000000
1.096770
1.359948
1.747589
2.247912
1.447341
0.864145
0.421854
0.101463
0.000000
0.101463
0.421854
0.864145
1.447341
0.707107
0.000000
-0.578146
-0.898537
-0.999968
-0.898537
-0.578146
0.000000
0.707107
0.000000
-0.707107
-1.398288
-1.857894
-1.999862
-1.857894
-1.398288
-0.707107
0.000000
-1.000000
-1.514478
-2.150170
-2.732175
-2.996145
-2.732175
-2.150170
-1.514478
-1.000000
-2.000000
-2.395820
-2.931390
-3.536182
-3.957617
-3.536182
-2.931390
-2.395820
-2.000000
